11353257
  -OEChem-11221922522D

 83 85  0     0  0  0  0  0  0999 V2000
    7.1391    5.0684    0.0000 O   0  0  0  0  0  0  0  0  0  0  0  0
    5.5211    5.0684    0.0000 O   0  0  0  0  0  0  0  0  0  0  0  0
    6.3301    4.4806    0.0000 C   0  0  0  0  0  0  0  0  0  0  0  0
    6.3301    3.4806    0.0000 C   0  0  0  0  0  0  0  0  0  0  0  0
    6.8301    6.0194    0.0000 C   0  0  0  0  0  0  0  0  0  0  0  0
    5.8301    6.0194    0.0000 C   0  0  0  0  0  0  0  0  0  0  0  0
    2.8660    4.4806    0.0000 C   0  0  0  0  0  0  0  0  0  0  0  0
    5.4641    2.9806    0.0000 C   0  0  0  0  0  0  0  0  0  0  0  0
    7.1962    2.9806    0.0000 C   0  0  0  0  0  0  0  0  0  0  0  0
    9.7942    0.4806    0.0000 C   0  0  0  0  0  0  0  0  0  0  0  0
    7.1962    1.9806    0.0000 C   0  0  0  0  0  0  0  0  0  0  0  0
    5.4641    1.9806    0.0000 C   0  0  0  0  0  0  0  0  0  0  0  0
    6.3301    1.4806    0.0000 C   0  0  0  0  0  0  0  0  0  0  0  0
    2.0000    4.9806    0.0000 C   0  0  0  0  0  0  0  0  0  0  0  0
    2.3660    3.6146    0.0000 C   0  0  0  0  0  0  0  0  0  0  0  0
    3.3660    5.3466    0.0000 C   0  0  0  0  0  0  0  0  0  0  0  0
    3.7320    3.9806    0.0000 C   0  0  0  0  0  0  0  0  0  0  0  0
    4.5981    3.4806    0.0000 C   0  0  0  0  0  0  0  0  0  0  0  0
   10.6603   -0.0194    0.0000 C   0  0  0  0  0  0  0  0  0  0  0  0
   10.2942    1.3466    0.0000 C   0  0  0  0  0  0  0  0  0  0  0  0
    9.2942   -0.3854    0.0000 C   0  0  0  0  0  0  0  0  0  0  0  0
    8.9282    0.9806    0.0000 C   0  0  0  0  0  0  0  0  0  0  0  0
    8.0622    1.4806    0.0000 C   0  0  0  0  0  0  0  0  0  0  0  0
    6.3301    0.4806    0.0000 C   0  0  0  0  0  0  0  0  0  0  0  0
    6.3301   -0.5194    0.0000 C   0  0  0  0  0  0  0  0  0  0  0  0
    6.3301   -1.5194    0.0000 C   0  0  0  0  0  0  0  0  0  0  0  0
    7.1962   -2.0194    0.0000 C   0  0  0  0  0  0  0  0  0  0  0  0
    5.4641   -2.0194    0.0000 C   0  0  0  0  0  0  0  0  0  0  0  0
    7.1962   -3.0194    0.0000 C   0  0  0  0  0  0  0  0  0  0  0  0
    5.4641   -3.0194    0.0000 C   0  0  0  0  0  0  0  0  0  0  0  0
    6.3301   -3.5194    0.0000 C   0  0  0  0  0  0  0  0  0  0  0  0
    8.0622   -3.5194    0.0000 C   0  0  0  0  0  0  0  0  0  0  0  0
    4.5981   -3.5194    0.0000 C   0  0  0  0  0  0  0  0  0  0  0  0
    9.7942   -4.5194    0.0000 C   0  0  0  0  0  0  0  0  0  0  0  0
    2.8660   -4.5194    0.0000 C   0  0  0  0  0  0  0  0  0  0  0  0
    9.7942   -5.5194    0.0000 C   0  0  0  0  0  0  0  0  0  0  0  0
    2.8660   -5.5194    0.0000 C   0  0  0  0  0  0  0  0  0  0  0  0
    8.9282   -4.0194    0.0000 C   0  0  0  0  0  0  0  0  0  0  0  0
    3.7320   -4.0194    0.0000 C   0  0  0  0  0  0  0  0  0  0  0  0
   10.6603   -6.0194    0.0000 C   0  0  0  0  0  0  0  0  0  0  0  0
    2.0000   -6.0194    0.0000 C   0  0  0  0  0  0  0  0  0  0  0  0
    6.8826    4.1991    0.0000 H   0  0  0  0  0  0  0  0  0  0  0  0
    7.4366    6.1483    0.0000 H   0  0  0  0  0  0  0  0  0  0  0  0
    6.7653    6.6360    0.0000 H   0  0  0  0  0  0  0  0  0  0  0  0
    5.8949    6.6360    0.0000 H   0  0  0  0  0  0  0  0  0  0  0  0
    5.2237    6.1483    0.0000 H   0  0  0  0  0  0  0  0  0  0  0  0
    7.7331    3.2906    0.0000 H   0  0  0  0  0  0  0  0  0  0  0  0
    4.9272    1.6706    0.0000 H   0  0  0  0  0  0  0  0  0  0  0  0
    2.3100    5.5175    0.0000 H   0  0  0  0  0  0  0  0  0  0  0  0
    1.4631    5.2906    0.0000 H   0  0  0  0  0  0  0  0  0  0  0  0
    1.6900    4.4436    0.0000 H   0  0  0  0  0  0  0  0  0  0  0  0
    1.8291    3.9246    0.0000 H   0  0  0  0  0  0  0  0  0  0  0  0
    2.0560    3.0776    0.0000 H   0  0  0  0  0  0  0  0  0  0  0  0
    2.9030    3.3046    0.0000 H   0  0  0  0  0  0  0  0  0  0  0  0
    3.9030    5.0366    0.0000 H   0  0  0  0  0  0  0  0  0  0  0  0
    3.6760    5.8835    0.0000 H   0  0  0  0  0  0  0  0  0  0  0  0
    2.8291    5.6566    0.0000 H   0  0  0  0  0  0  0  0  0  0  0  0
   10.3503   -0.5564    0.0000 H   0  0  0  0  0  0  0  0  0  0  0  0
   11.1972   -0.3294    0.0000 H   0  0  0  0  0  0  0  0  0  0  0  0
   10.9703    0.5175    0.0000 H   0  0  0  0  0  0  0  0  0  0  0  0
   10.8312    1.0366    0.0000 H   0  0  0  0  0  0  0  0  0  0  0  0
   10.6042    1.8835    0.0000 H   0  0  0  0  0  0  0  0  0  0  0  0
    9.7573    1.6566    0.0000 H   0  0  0  0  0  0  0  0  0  0  0  0
    8.7573   -0.0754    0.0000 H   0  0  0  0  0  0  0  0  0  0  0  0
    8.9842   -0.9224    0.0000 H   0  0  0  0  0  0  0  0  0  0  0  0
    9.8312   -0.6954    0.0000 H   0  0  0  0  0  0  0  0  0  0  0  0
    7.7331   -1.7094    0.0000 H   0  0  0  0  0  0  0  0  0  0  0  0
    4.9272   -1.7094    0.0000 H   0  0  0  0  0  0  0  0  0  0  0  0
    6.3301   -4.1394    0.0000 H   0  0  0  0  0  0  0  0  0  0  0  0
   10.4048   -4.6271    0.0000 H   0  0  0  0  0  0  0  0  0  0  0  0
   10.0063   -3.9368    0.0000 H   0  0  0  0  0  0  0  0  0  0  0  0
    2.6540   -3.9368    0.0000 H   0  0  0  0  0  0  0  0  0  0  0  0
    2.2554   -4.6271    0.0000 H   0  0  0  0  0  0  0  0  0  0  0  0
    9.1836   -5.4118    0.0000 H   0  0  0  0  0  0  0  0  0  0  0  0
    9.5822   -6.1020    0.0000 H   0  0  0  0  0  0  0  0  0  0  0  0
    3.0781   -6.1020    0.0000 H   0  0  0  0  0  0  0  0  0  0  0  0
    3.4766   -5.4118    0.0000 H   0  0  0  0  0  0  0  0  0  0  0  0
   10.3503   -6.5564    0.0000 H   0  0  0  0  0  0  0  0  0  0  0  0
   11.1972   -6.3294    0.0000 H   0  0  0  0  0  0  0  0  0  0  0  0
   10.9703   -5.4825    0.0000 H   0  0  0  0  0  0  0  0  0  0  0  0
    1.6900   -5.4825    0.0000 H   0  0  0  0  0  0  0  0  0  0  0  0
    1.4631   -6.3294    0.0000 H   0  0  0  0  0  0  0  0  0  0  0  0
    2.3100   -6.5564    0.0000 H   0  0  0  0  0  0  0  0  0  0  0  0
  1  3  1  0  0  0  0
  1  5  1  0  0  0  0
  2  3  1  0  0  0  0
  2  6  1  0  0  0  0
  3  4  1  0  0  0  0
  3 42  1  0  0  0  0
  4  8  2  0  0  0  0
  4  9  1  0  0  0  0
  5  6  1  0  0  0  0
  5 43  1  0  0  0  0
  5 44  1  0  0  0  0
  6 45  1  0  0  0  0
  6 46  1  0  0  0  0
  7 14  1  0  0  0  0
  7 15  1  0  0  0  0
  7 16  1  0  0  0  0
  7 17  1  0  0  0  0
  8 12  1  0  0  0  0
  8 18  1  0  0  0  0
  9 11  2  0  0  0  0
  9 47  1  0  0  0  0
 10 19  1  0  0  0  0
 10 20  1  0  0  0  0
 10 21  1  0  0  0  0
 10 22  1  0  0  0  0
 11 13  1  0  0  0  0
 11 23  1  0  0  0  0
 12 13  2  0  0  0  0
 12 48  1  0  0  0  0
 13 24  1  0  0  0  0
 14 49  1  0  0  0  0
 14 50  1  0  0  0  0
 14 51  1  0  0  0  0
 15 52  1  0  0  0  0
 15 53  1  0  0  0  0
 15 54  1  0  0  0  0
 16 55  1  0  0  0  0
 16 56  1  0  0  0  0
 16 57  1  0  0  0  0
 17 18  3  0  0  0  0
 19 58  1  0  0  0  0
 19 59  1  0  0  0  0
 19 60  1  0  0  0  0
 20 61  1  0  0  0  0
 20 62  1  0  0  0  0
 20 63  1  0  0  0  0
 21 64  1  0  0  0  0
 21 65  1  0  0  0  0
 21 66  1  0  0  0  0
 22 23  3  0  0  0  0
 24 25  3  0  0  0  0
 25 26  1  0  0  0  0
 26 27  2  0  0  0  0
 26 28  1  0  0  0  0
 27 29  1  0  0  0  0
 27 67  1  0  0  0  0
 28 30  2  0  0  0  0
 28 68  1  0  0  0  0
 29 31  2  0  0  0  0
 29 32  1  0  0  0  0
 30 31  1  0  0  0  0
 30 33  1  0  0  0  0
 31 69  1  0  0  0  0
 32 38  3  0  0  0  0
 33 39  3  0  0  0  0
 34 36  1  0  0  0  0
 34 38  1  0  0  0  0
 34 70  1  0  0  0  0
 34 71  1  0  0  0  0
 35 37  1  0  0  0  0
 35 39  1  0  0  0  0
 35 72  1  0  0  0  0
 35 73  1  0  0  0  0
 36 40  1  0  0  0  0
 36 74  1  0  0  0  0
 36 75  1  0  0  0  0
 37 41  1  0  0  0  0
 37 76  1  0  0  0  0
 37 77  1  0  0  0  0
 40 78  1  0  0  0  0
 40 79  1  0  0  0  0
 40 80  1  0  0  0  0
 41 81  1  0  0  0  0
 41 82  1  0  0  0  0
 41 83  1  0  0  0  0
M  END
> <PUBCHEM_COMPOUND_CID>
11353257

> <PUBCHEM_COMPOUND_CANONICALIZED>
1

> <PUBCHEM_CACTVS_COMPLEXITY>
1180

> <PUBCHEM_CACTVS_HBOND_ACCEPTOR>
2

> <PUBCHEM_CACTVS_HBOND_DONOR>
0

> <PUBCHEM_CACTVS_ROTATABLE_BOND>
11

> <PUBCHEM_CACTVS_SUBSKEYS>
AAADcfB8MAAAAAAAAAAAAAAAAAAAASAAAAAwYAAAAAAAAAABQAAAGgAAAAAADgCwmAMyCIAABADAEiBCAAgCAAAgAAAAiAAACIgZJiKAMRiiMAAkwAEOqAeAwPAOwAACAAAQAACAAAQAACAAAAAAAAAAAA==

> <PUBCHEM_IUPAC_OPENEYE_NAME>
2-[4-[2-[3,5-bis(pent-1-ynyl)phenyl]ethynyl]-2,5-bis(3,3-dimethylbut-1-ynyl)phenyl]-1,3-dioxolane

> <PUBCHEM_IUPAC_CAS_NAME>
2-[4-[2-[3,5-bis(pent-1-ynyl)phenyl]ethynyl]-2,5-bis(3,3-dimethylbut-1-ynyl)phenyl]-1,3-dioxolane

> <PUBCHEM_IUPAC_NAME_MARKUP>
2-[4-[2-[3,5-bis(pent-1-ynyl)phenyl]ethynyl]-2,5-bis(3,3-dimethylbut-1-ynyl)phenyl]-1,3-dioxolane

> <PUBCHEM_IUPAC_NAME>
2-[4-[2-[3,5-bis(pent-1-ynyl)phenyl]ethynyl]-2,5-bis(3,3-dimethylbut-1-ynyl)phenyl]-1,3-dioxolane

> <PUBCHEM_IUPAC_SYSTEMATIC_NAME>
2-[4-[2-[3,5-bis(pent-1-ynyl)phenyl]ethynyl]-2,5-bis(3,3-dimethylbut-1-ynyl)phenyl]-1,3-dioxolane

> <PUBCHEM_IUPAC_TRADITIONAL_NAME>
2-[4-[2-[3,5-bis(pent-1-ynyl)phenyl]ethynyl]-2,5-bis(3,3-dimethylbut-1-ynyl)phenyl]-1,3-dioxolane

> <PUBCHEM_IUPAC_INCHI>
InChI=1S/C39H42O2/c1-9-11-13-15-30-25-31(16-14-12-10-2)27-32(26-30)17-18-33-28-35(20-22-39(6,7)8)36(37-40-23-24-41-37)29-34(33)19-21-38(3,4)5/h25-29,37H,9-12,23-24H2,1-8H3

> <PUBCHEM_IUPAC_INCHIKEY>
LEXBNEYPTZBYBE-UHFFFAOYSA-N

> <PUBCHEM_XLOGP3_AA>
10.9

> <PUBCHEM_EXACT_MASS>
542.318481

> <PUBCHEM_MOLECULAR_FORMULA>
C39H42O2

> <PUBCHEM_MOLECULAR_WEIGHT>
542.7

> <PUBCHEM_OPENEYE_CAN_SMILES>
CCCC#CC1=CC(=CC(=C1)C#CC2=CC(=C(C=C2C#CC(C)(C)C)C3OCCO3)C#CC(C)(C)C)C#CCCC

> <PUBCHEM_OPENEYE_ISO_SMILES>
CCCC#CC1=CC(=CC(=C1)C#CC2=CC(=C(C=C2C#CC(C)(C)C)C3OCCO3)C#CC(C)(C)C)C#CCCC

> <PUBCHEM_CACTVS_TPSA>
18.5

> <PUBCHEM_MONOISOTOPIC_WEIGHT>
542.318481

> <PUBCHEM_TOTAL_CHARGE>
0

> <PUBCHEM_HEAVY_ATOM_COUNT>
41

> <PUBCHEM_ATOM_DEF_STEREO_COUNT>
0

> <PUBCHEM_ATOM_UDEF_STEREO_COUNT>
0

> <PUBCHEM_BOND_DEF_STEREO_COUNT>
0

> <PUBCHEM_BOND_UDEF_STEREO_COUNT>
0

> <PUBCHEM_ISOTOPIC_ATOM_COUNT>
0

> <PUBCHEM_COMPONENT_COUNT>
1

> <PUBCHEM_CACTVS_TAUTO_COUNT>
-1

> <PUBCHEM_COORDINATE_TYPE>
1
5
255

> <PUBCHEM_BONDANNOTATIONS>
11  13  8
12  13  8
26  27  8
26  28  8
27  29  8
28  30  8
29  31  8
30  31  8
4  8  8
4  9  8
8  12  8
9  11  8

$$$$
